1080
Lattice="23.43 0.0 0.0 0.0 23.43 0.0 0.0 0.0 41.4775" Properties=species:S:1:pos:R:3:move_mask:L:1:forces:R:3:energies:R:1 energy=-8585.6103515625 stress="-0.009144773706793785 7.947728031254542e-10 -3.7218210735545654e-09 7.947728031254542e-10 -0.009144753217697144 -2.102015006499869e-09 -3.7218210735545654e-09 -2.102015006499869e-09 -0.010747809894382954" free_energy=-8585.6103515625 pbc="T T T"
Sr       0.00000000       0.00000000       1.00000000  F      -0.00000145      -0.00000139       1.16205394      -3.21284056
Ti       1.95250000       1.95250000       2.95250000  F       0.00000039      -0.00000142      -1.26406431      -8.58239365
O        1.95250000       1.95250000       1.00000000  F      -0.00000076       0.00000222      -0.74018133      -8.61134434
O        1.95250000       0.00000000       2.95250000  F      -0.00000047      -0.00000051       0.00619204      -9.40528011
O        0.00000000       1.95250000       2.95250000  F      -0.00000058      -0.00000096       0.00619164      -9.40527916
Sr       0.00000000       0.00000000       4.90500000  F       0.00000070       0.00000097      -0.09530948      -3.35677385
Ti       1.95250000       1.95250000       6.85750000  T       0.00000276       0.00000132      -0.30608317      -8.50920963
O        1.95250000       1.95250000       4.90500000  F      -0.00000010      -0.00000069       0.54509366      -9.41191006
O        1.95250000       0.00000000       6.85750000  T      -0.00000275       0.00000200       0.06245011      -9.41400337
O        0.00000000       1.95250000       6.85750000  T      -0.00000032      -0.00000357       0.06245215      -9.41400242
Sr       0.00000000       0.00000000       8.81000000  T      -0.00000053      -0.00000050      -0.03146547      -3.35900617
Ti       1.95250000       1.95250000      10.76250000  T       0.00000076       0.00000233      -0.02270203      -8.50935555
O        1.95250000       1.95250000       8.81000000  T      -0.00000030       0.00000002       0.09056449      -9.40879536
O        1.95250000       0.00000000      10.76250000  T      -0.00000001      -0.00000085       0.00674417      -9.40880013
O        0.00000000       1.95250000      10.76250000  T      -0.00000009      -0.00000108       0.00674402      -9.40880013
Sr       0.00000000       0.00000000      12.71500000  T       0.00000021      -0.00000019       0.01425071      -3.35900426
Ti       1.95250000       1.95250000      14.66750000  T      -0.00000761      -0.00000613       0.04361308      -8.50933647
O        1.95250000       1.95250000      12.71500000  T       0.00000283       0.00000349      -0.03154697      -9.40880108
O        1.95250000       0.00000000      14.66750000  T      -0.00000165       0.00000062      -0.00580825      -9.40881443
O        0.00000000       1.95250000      14.66750000  T       0.00000347      -0.00000199      -0.00580874      -9.40881348
Sr       0.00000000       0.00000000      16.62000000  T      -0.00000265      -0.00000214       0.03884948      -3.35843897
Ti       1.95250000       1.95250000      18.57250000  T      -0.00001109      -0.00001067      -0.31964630      -8.50897789
O        1.95250000       1.95250000      16.62000000  T       0.00000548       0.00000479       0.08584259      -9.41228485
O        1.95250000       0.00000000      18.57250000  T      -0.00000531       0.00000464      -0.01112476      -9.42574787
O        0.00000000       1.95250000      18.57250000  T       0.00000385      -0.00000163      -0.01112621      -9.42574787
Sr       0.00000000       0.00000000      20.52500000  T      -0.00000049      -0.00000093       0.59249717      -3.36762452
Ti       1.95250000       1.95250000      22.47750000  T      -0.00000112      -0.00000422      -2.05864644      -8.32776070
O        1.95250000       1.95250000      20.52500000  T       0.00000254       0.00000168       1.11326134      -9.34298229
O        1.95250000       0.00000000      22.47750000  T       0.00000086      -0.00000425       0.53335679      -8.90394402
O        0.00000000       1.95250000      22.47750000  T      -0.00000265       0.00000174       0.53335690      -8.90394306
Sr       0.00000000       3.90500000       1.00000000  F      -0.00000136       0.00000287       1.16205418      -3.21284032
Ti       1.95250000       5.85750000       2.95250000  F      -0.00000405       0.00000883      -1.26406240      -8.58239460
O        1.95250000       5.85750000       1.00000000  F       0.00000085      -0.00000332      -0.74018300      -8.61134243
O        1.95250000       3.90500000       2.95250000  F       0.00000067      -0.00000332       0.00619060      -9.40528011
O        0.00000000       5.85750000       2.95250000  F      -0.00000199      -0.00000261       0.00619214      -9.40527916
Sr       0.00000000       3.90500000       4.90500000  F       0.00000107       0.00000460      -0.09531017      -3.35677314
Ti       1.95250000       5.85750000       6.85750000  T       0.00000401       0.00000902      -0.30608493      -8.50920963
O        1.95250000       5.85750000       4.90500000  F      -0.00000173      -0.00000319       0.54508984      -9.41190910
O        1.95250000       3.90500000       6.85750000  T      -0.00000198      -0.00000589       0.06244940      -9.41400337
O        0.00000000       5.85750000       6.85750000  T      -0.00000366      -0.00000217       0.06245014      -9.41400242
Sr       0.00000000       3.90500000       8.81000000  T       0.00000023       0.00000431      -0.03146614      -3.35900617
Ti       1.95250000       5.85750000      10.76250000  T       0.00000111       0.00001135      -0.02270627      -8.50935555
O        1.95250000       5.85750000       8.81000000  T      -0.00000258      -0.00000277       0.09056712      -9.40879631
O        1.95250000       3.90500000      10.76250000  T      -0.00000090      -0.00000355       0.00674516      -9.40880108
O        0.00000000       5.85750000      10.76250000  T      -0.00000337      -0.00000414       0.00674480      -9.40879917
Sr       0.00000000       3.90500000      12.71500000  T      -0.00000009       0.00000342       0.01425236      -3.35900474
Ti       1.95250000       5.85750000      14.66750000  T      -0.00000695       0.00000616       0.04360458      -8.50933743
O        1.95250000       5.85750000      12.71500000  T      -0.00000014      -0.00000216      -0.03154271      -9.40879917
O        1.95250000       3.90500000      14.66750000  T       0.00000054      -0.00000082      -0.00580217      -9.40881443
O        0.00000000       5.85750000      14.66750000  T       0.00000203      -0.00000034      -0.00580597      -9.40881157
Sr       0.00000000       3.90500000      16.62000000  T      -0.00000425       0.00000036       0.03885236      -3.35843897
Ti       1.95250000       5.85750000      18.57250000  T      -0.00001007      -0.00000376      -0.31964523      -8.50897884
O        1.95250000       5.85750000      16.62000000  T       0.00000285      -0.00000118       0.08584950      -9.41228485
O        1.95250000       3.90500000      18.57250000  T      -0.00000044       0.00000366      -0.01112655      -9.42574978
O        0.00000000       5.85750000      18.57250000  T       0.00000478       0.00000307      -0.01112594      -9.42574692
Sr       0.00000000       3.90500000      20.52500000  T      -0.00000064       0.00000112       0.59249997      -3.36762404
Ti       1.95250000       5.85750000      22.47750000  T       0.00000094      -0.00000031      -2.05864191      -8.32776356
O        1.95250000       5.85750000      20.52500000  T       0.00000072       0.00000081       1.11325824      -9.34298420
O        1.95250000       3.90500000      22.47750000  T       0.00000023       0.00000138       0.53335404      -8.90394402
O        0.00000000       5.85750000      22.47750000  T      -0.00000340       0.00000332       0.53335088      -8.90394115
Sr       0.00000000       7.81000000       1.00000000  F       0.00000001       0.00000078       1.16205394      -3.21284175
Ti       1.95250000       9.76250000       2.95250000  F      -0.00000071       0.00000500      -1.26406443      -8.58239365
O        1.95250000       9.76250000       1.00000000  F       0.00000143      -0.00000207      -0.74018276      -8.61134243
O        1.95250000       7.81000000       2.95250000  F      -0.00000038      -0.00000174       0.00619114      -9.40527916
O        0.00000000       9.76250000       2.95250000  F      -0.00000640       0.00000041       0.00619268      -9.40527821
Sr       0.00000000       7.81000000       4.90500000  F       0.00000219      -0.00000060      -0.09530938      -3.35677385
Ti       1.95250000       9.76250000       6.85750000  T       0.00000243       0.00000123      -0.30608380      -8.50920868
O        1.95250000       9.76250000       4.90500000  F      -0.00000080       0.00000021       0.54509217      -9.41190815
O        1.95250000       7.81000000       6.85750000  T      -0.00000162      -0.00000190       0.06245056      -9.41400242
O        0.00000000       9.76250000       6.85750000  T      -0.00000633       0.00000084       0.06245034      -9.41400337
Sr       0.00000000       7.81000000       8.81000000  T       0.00000138      -0.00000065      -0.03146734      -3.35900664
Ti       1.95250000       9.76250000      10.76250000  T       0.00000301       0.00000018      -0.02270693      -8.50935459
O        1.95250000       9.76250000       8.81000000  T      -0.00000478       0.00000180       0.09056674      -9.40879536
O        1.95250000       7.81000000      10.76250000  T       0.00000033      -0.00000108       0.00674460      -9.40879917
O        0.00000000       9.76250000      10.76250000  T      -0.00000633       0.00000038       0.00674263      -9.40879917
Sr       0.00000000       7.81000000      12.71500000  T       0.00000262      -0.00000007       0.01424918      -3.35900426
Ti       1.95250000       9.76250000      14.66750000  T      -0.00000184       0.00000458       0.04359883      -8.50933647
O        1.95250000       9.76250000      12.71500000  T      -0.00000015       0.00000225      -0.03154264      -9.40879917
O        1.95250000       7.81000000      14.66750000  T       0.00000208       0.00000088      -0.00580048      -9.40881443
O        0.00000000       9.76250000      14.66750000  T      -0.00000340       0.00000131      -0.00580295      -9.40881252
Sr       0.00000000       7.81000000      16.62000000  T      -0.00000152      -0.00000155       0.03884912      -3.35843801
Ti       1.95250000       9.76250000      18.57250000  T      -0.00000655       0.00000940      -0.31964600      -8.50897789
O        1.95250000       9.76250000      16.62000000  T       0.00000122       0.00000201       0.08584671      -9.41228485
O        1.95250000       7.81000000      18.57250000  T      -0.00000116       0.00000404      -0.01112660      -9.42574978
O        0.00000000       9.76250000      18.57250000  T      -0.00000164      -0.00000076      -0.01112897      -9.42574692
Sr       0.00000000       7.81000000      20.52500000  T      -0.00000109      -0.00000155       0.59249979      -3.36762309
Ti       1.95250000       9.76250000      22.47750000  T       0.00000387       0.00000611      -2.05864406      -8.32776356
O        1.95250000       9.76250000      20.52500000  T       0.00000120       0.00000179       1.11326051      -9.34298420
O        1.95250000       7.81000000      22.47750000  T       0.00000397       0.00000206       0.53335220      -8.90394306
O        0.00000000       9.76250000      22.47750000  T      -0.00000782      -0.00000125       0.53334880      -8.90394020
Sr       0.00000000      11.71500000       1.00000000  F      -0.00000042      -0.00000184       1.16205406      -3.21284175
Ti       1.95250000      13.66750000       2.95250000  F      -0.00000292      -0.00000531      -1.26406193      -8.58239460
O        1.95250000      13.66750000       1.00000000  F       0.00000114       0.00000279      -0.74018496      -8.61134243
O        1.95250000      11.71500000       2.95250000  F       0.00000049      -0.00000630       0.00619118      -9.40527916
O        0.00000000      13.66750000       2.95250000  F      -0.00000376       0.00000294       0.00619179      -9.40527821
Sr       0.00000000      11.71500000       4.90500000  F       0.00000392      -0.00000279      -0.09530990      -3.35677338
Ti       1.95250000      13.66750000       6.85750000  T       0.00000013      -0.00001099      -0.30608553      -8.50921059
O        1.95250000      13.66750000       4.90500000  F      -0.00000110       0.00000813       0.54509240      -9.41190815
O        1.95250000      11.71500000       6.85750000  T      -0.00000026      -0.00000462       0.06245090      -9.41400242
O        0.00000000      13.66750000       6.85750000  T      -0.00000318       0.00000390       0.06244966      -9.41400146
Sr       0.00000000      11.71500000       8.81000000  T       0.00000128      -0.00000114      -0.03146757      -3.35900617
Ti       1.95250000      13.66750000      10.76250000  T      -0.00000130      -0.00001307      -0.02270151      -8.50935650
O        1.95250000      13.66750000       8.81000000  T      -0.00000167       0.00000847       0.09056510      -9.40879631
O        1.95250000      11.71500000      10.76250000  T       0.00000039      -0.00000607       0.00674461      -9.40879917
O        0.00000000      13.66750000      10.76250000  T      -0.00000287       0.00000396       0.00674389      -9.40879822
Sr       0.00000000      11.71500000      12.71500000  T       0.00000139      -0.00000261       0.01424959      -3.35900474
Ti       1.95250000      13.66750000      14.66750000  T      -0.00000634       0.00000954       0.04361976      -8.50933647
O        1.95250000      13.66750000      12.71500000  T      -0.00000056       0.00000400      -0.03154800      -9.40880108
O        1.95250000      11.71500000      14.66750000  T       0.00000035      -0.00001245      -0.00580072      -9.40881538
O        0.00000000      13.66750000      14.66750000  T      -0.00000295       0.00000162      -0.00580587      -9.40881252
Sr       0.00000000      11.71500000      16.62000000  T      -0.00000139       0.00000186       0.03884986      -3.35843849
Ti       1.95250000      13.66750000      18.57250000  T      -0.00001165       0.00002286      -0.31964704      -8.50897789
O        1.95250000      13.66750000      16.62000000  T       0.00000427      -0.00000497       0.08584191      -9.41228485
O        1.95250000      11.71500000      18.57250000  T       0.00000083      -0.00001927      -0.01112726      -9.42574978
O        0.00000000      13.66750000      18.57250000  T      -0.00000572       0.00000398      -0.01112548      -9.42574692
Sr       0.00000000      11.71500000      20.52500000  T      -0.00000048       0.00000006       0.59249783      -3.36762381
Ti       1.95250000      13.66750000      22.47750000  T      -0.00000306       0.00002363      -2.05865765      -8.32775879
O        1.95250000      13.66750000      20.52500000  T       0.00000100       0.00000002       1.11326706      -9.34298229
O        1.95250000      11.71500000      22.47750000  T       0.00000162      -0.00001892       0.53335619      -8.90394592
O        0.00000000      13.66750000      22.47750000  T      -0.00000575      -0.00000321       0.53335249      -8.90394306
Sr       0.00000000      15.62000000       1.00000000  F      -0.00000271      -0.00000357       1.16205597      -3.21284032
Ti       1.95250000      17.57250000       2.95250000  F      -0.00000542       0.00000055      -1.26406848      -8.58239365
O        1.95250000      17.57250000       1.00000000  F       0.00000058      -0.00000008      -0.74018109      -8.61134243
O        1.95250000      15.62000000       2.95250000  F       0.00000296       0.00000712       0.00619271      -9.40528011
O        0.00000000      17.57250000       2.95250000  F      -0.00000302      -0.00000361       0.00619086      -9.40527725
Sr       0.00000000      15.62000000       4.90500000  F       0.00000147      -0.00000405      -0.09531084      -3.35677338
Ti       1.95250000      17.57250000       6.85750000  T      -0.00000533       0.00000036      -0.30608675      -8.50921059
O        1.95250000      17.57250000       4.90500000  F      -0.00000041      -0.00000147       0.54509568      -9.41191006
O        1.95250000      15.62000000       6.85750000  T       0.00000108       0.00000671       0.06244895      -9.41400528
O        0.00000000      17.57250000       6.85750000  T      -0.00000093      -0.00000264       0.06245004      -9.41400051
Sr       0.00000000      15.62000000       8.81000000  T      -0.00000073      -0.00000189      -0.03146557      -3.35900617
Ti       1.95250000      17.57250000      10.76250000  T      -0.00000617      -0.00000064      -0.02269700      -8.50935555
O        1.95250000      17.57250000       8.81000000  T      -0.00000185      -0.00000158       0.09056500      -9.40879631
O        1.95250000      15.62000000      10.76250000  T       0.00000219       0.00000657       0.00674044      -9.40880394
O        0.00000000      17.57250000      10.76250000  T      -0.00000108      -0.00000311       0.00674445      -9.40879726
Sr       0.00000000      15.62000000      12.71500000  T       0.00000027      -0.00000207       0.01425360      -3.35900426
Ti       1.95250000      17.57250000      14.66750000  T       0.00000231       0.00000224       0.04363605      -8.50933456
O        1.95250000      17.57250000      12.71500000  T      -0.00000373      -0.00000357      -0.03155190      -9.40880108
O        1.95250000      15.62000000      14.66750000  T      -0.00000166       0.00000074      -0.00581268      -9.40881729
O        0.00000000      17.57250000      14.66750000  T      -0.00000688      -0.00000310      -0.00580870      -9.40881348
Sr       0.00000000      15.62000000      16.62000000  T       0.00000059       0.00000099       0.03885288      -3.35843921
Ti       1.95250000      17.57250000      18.57250000  T      -0.00000963       0.00000955      -0.31964862      -8.50897789
O        1.95250000      17.57250000      16.62000000  T       0.00000427      -0.00000753       0.08584608      -9.41228294
O        1.95250000      15.62000000      18.57250000  T      -0.00000179      -0.00000597      -0.01112618      -9.42574978
O        0.00000000      17.57250000      18.57250000  T      -0.00001560      -0.00000131      -0.01112018      -9.42574787
Sr       0.00000000      15.62000000      20.52500000  T       0.00000219      -0.00000281       0.59249890      -3.36762524
Ti       1.95250000      17.57250000      22.47750000  T      -0.00000977       0.00000088      -2.05867720      -8.32775402
O        1.95250000      17.57250000      20.52500000  T       0.00000159      -0.00000276       1.11327052      -9.34297943
O        1.95250000      15.62000000      22.47750000  T       0.00000066      -0.00000130       0.53335214      -8.90394115
O        0.00000000      17.57250000      22.47750000  T      -0.00000285      -0.00000184       0.53335840      -8.90394402
Sr       0.00000000      19.52500000       1.00000000  F      -0.00000202      -0.00000059       1.16205454      -3.21284056
Ti       1.95250000      21.47750000       2.95250000  F       0.00000245      -0.00000203      -1.26406682      -8.58239365
O        1.95250000      21.47750000       1.00000000  F       0.00000164      -0.00000069      -0.74018079      -8.61134148
O        1.95250000      19.52500000       2.95250000  F       0.00000254       0.00000919       0.00619249      -9.40527916
O        0.00000000      21.47750000       2.95250000  F      -0.00000286      -0.00000187       0.00619376      -9.40527821
Sr       0.00000000      19.52500000       4.90500000  F       0.00000167      -0.00000054      -0.09531098      -3.35677385
Ti       1.95250000      21.47750000       6.85750000  T       0.00000170       0.00000051      -0.30608511      -8.50920963
O        1.95250000      21.47750000       4.90500000  F       0.00000136      -0.00000459       0.54509377      -9.41190720
O        1.95250000      19.52500000       6.85750000  T       0.00000088       0.00001196       0.06245089      -9.41400433
O        0.00000000      21.47750000       6.85750000  T      -0.00000089      -0.00000055       0.06245109      -9.41400146
Sr       0.00000000      19.52500000       8.81000000  T      -0.00000062      -0.00000145      -0.03146588      -3.35900664
Ti       1.95250000      21.47750000      10.76250000  T      -0.00000237       0.00000182      -0.02269962      -8.50935555
O        1.95250000      21.47750000       8.81000000  T      -0.00000032      -0.00000869       0.09056561      -9.40879536
O        1.95250000      19.52500000      10.76250000  T       0.00000362       0.00001387       0.00674269      -9.40880108
O        0.00000000      21.47750000      10.76250000  T      -0.00000038      -0.00000076       0.00673933      -9.40879822
Sr       0.00000000      19.52500000      12.71500000  T       0.00000024       0.00000002       0.01425299      -3.35900426
Ti       1.95250000      21.47750000      14.66750000  T       0.00000460      -0.00000922       0.04363229      -8.50933361
O        1.95250000      21.47750000      12.71500000  T      -0.00000033      -0.00000651      -0.03155176      -9.40880108
O        1.95250000      19.52500000      14.66750000  T       0.00000045       0.00001191      -0.00581464      -9.40881443
O        0.00000000      21.47750000      14.66750000  T      -0.00000391      -0.00000047      -0.00580729      -9.40881443
Sr       0.00000000      19.52500000      16.62000000  T       0.00000196      -0.00000197       0.03885311      -3.35843921
Ti       1.95250000      21.47750000      18.57250000  T       0.00000678      -0.00002140      -0.31964731      -8.50897598
O        1.95250000      21.47750000      16.62000000  T       0.00000119       0.00000164       0.08584227      -9.41228390
O        1.95250000      19.52500000      18.57250000  T       0.00000262       0.00001190      -0.01112361      -9.42574787
O        0.00000000      21.47750000      18.57250000  T      -0.00000752       0.00000043      -0.01112604      -9.42574978
Sr       0.00000000      19.52500000      20.52500000  T       0.00000017       0.00000203       0.59249747      -3.36762476
Ti       1.95250000      21.47750000      22.47750000  T      -0.00000417      -0.00001181      -2.05866861      -8.32775307
O        1.95250000      21.47750000      20.52500000  T       0.00000257      -0.00000277       1.11326957      -9.34298229
O        1.95250000      19.52500000      22.47750000  T       0.00000293       0.00000809       0.53335088      -8.90394115
O        0.00000000      21.47750000      22.47750000  T      -0.00000334       0.00000004       0.53335541      -8.90394402
Sr       3.90500000       0.00000000       1.00000000  F       0.00000336      -0.00000226       1.16205335      -3.21284032
Ti       5.85750000       1.95250000       2.95250000  F       0.00000690      -0.00000487      -1.26406288      -8.58239460
O        5.85750000       1.95250000       1.00000000  F      -0.00000357      -0.00000188      -0.74018377      -8.61134434
O        5.85750000       0.00000000       2.95250000  F      -0.00000304      -0.00000015       0.00619245      -9.40527916
O        3.90500000       1.95250000       2.95250000  F      -0.00000527       0.00000054       0.00619131      -9.40528011
Sr       3.90500000       0.00000000       4.90500000  F       0.00000516       0.00000056      -0.09530982      -3.35677314
Ti       5.85750000       1.95250000       6.85750000  T       0.00000959      -0.00000078      -0.30608293      -8.50920963
O        5.85750000       1.95250000       4.90500000  F      -0.00000261       0.00000012       0.54509068      -9.41190815
O        5.85750000       0.00000000       6.85750000  T      -0.00000258      -0.00000222       0.06245124      -9.41400146
O        3.90500000       1.95250000       6.85750000  T      -0.00000622      -0.00000095       0.06245004      -9.41400337
Sr       3.90500000       0.00000000       8.81000000  T       0.00000415      -0.00000029      -0.03146642      -3.35900617
Ti       5.85750000       1.95250000      10.76250000  T       0.00001384       0.00000191      -0.02270591      -8.50935555
O        5.85750000       1.95250000       8.81000000  T      -0.00000327      -0.00000367       0.09056619      -9.40879536
O        5.85750000       0.00000000      10.76250000  T      -0.00000416      -0.00000347       0.00674415      -9.40879917
O        3.90500000       1.95250000      10.76250000  T      -0.00000384      -0.00000245       0.00674565      -9.40880108
Sr       3.90500000       0.00000000      12.71500000  T       0.00000333      -0.00000055       0.01425312      -3.35900426
Ti       5.85750000       1.95250000      14.66750000  T       0.00000572      -0.00000674       0.04360097      -8.50933743
O        5.85750000       1.95250000      12.71500000  T      -0.00000464      -0.00000058      -0.03154185      -9.40880108
O        5.85750000       0.00000000      14.66750000  T       0.00000034       0.00000103      -0.00580545      -9.40881252
O        3.90500000       1.95250000      14.66750000  T      -0.00000087       0.00000250      -0.00580192      -9.40881443
Sr       3.90500000       0.00000000      16.62000000  T       0.00000030      -0.00000446       0.03885209      -3.35843849
Ti       5.85750000       1.95250000      18.57250000  T      -0.00000048      -0.00001242      -0.31964469      -8.50897884
O        5.85750000       1.95250000      16.62000000  T      -0.00000003       0.00000314       0.08584747      -9.41228485
O        5.85750000       0.00000000      18.57250000  T      -0.00000021       0.00000439      -0.01112686      -9.42574692
O        3.90500000       1.95250000      18.57250000  T       0.00000462       0.00000126      -0.01112643      -9.42575073
Sr       3.90500000       0.00000000      20.52500000  T       0.00000117       0.00000007       0.59250063      -3.36762404
Ti       5.85750000       1.95250000      22.47750000  T      -0.00000048       0.00000205      -2.05864096      -8.32776356
O        5.85750000       1.95250000      20.52500000  T      -0.00000094       0.00000023       1.11325967      -9.34298420
O        5.85750000       0.00000000      22.47750000  T       0.00000286      -0.00000546       0.53335029      -8.90394115
O        3.90500000       1.95250000      22.47750000  T       0.00000150       0.00000007       0.53335482      -8.90394402
Sr       3.90500000       3.90500000       1.00000000  F       0.00000112       0.00000064       1.16205549      -3.21283913
Ti       5.85750000       5.85750000       2.95250000  F       0.00001047       0.00001070      -1.26406360      -8.58239555
O        5.85750000       5.85750000       1.00000000  F      -0.00000425      -0.00000218      -0.74018246      -8.61134338
O        5.85750000       3.90500000       2.95250000  F      -0.00000324      -0.00000414       0.00619033      -9.40527916
O        3.90500000       5.85750000       2.95250000  F      -0.00000576      -0.00000328       0.00619068      -9.40527916
Sr       3.90500000       3.90500000       4.90500000  F       0.00000348       0.00000333      -0.09531013      -3.35677338
Ti       5.85750000       5.85750000       6.85750000  T       0.00001050       0.00001132      -0.30608258      -8.50920963
O        5.85750000       5.85750000       4.90500000  F      -0.00000396      -0.00000462       0.54508948      -9.41190815
O        5.85750000       3.90500000       6.85750000  T      -0.00000282      -0.00000624       0.06244925      -9.41400337
O        3.90500000       5.85750000       6.85750000  T      -0.00000555      -0.00000369       0.06244833      -9.41400337
Sr       3.90500000       3.90500000       8.81000000  T       0.00000453       0.00000414      -0.03146693      -3.35900617
Ti       5.85750000       5.85750000      10.76250000  T       0.00000829       0.00000906      -0.02271106      -8.50935555
O        5.85750000       5.85750000       8.81000000  T      -0.00000326      -0.00000379       0.09056792      -9.40879345
O        5.85750000       3.90500000      10.76250000  T      -0.00000387      -0.00000475       0.00674741      -9.40879917
O        3.90500000       5.85750000      10.76250000  T      -0.00000390      -0.00000313       0.00674660      -9.40879917
Sr       3.90500000       3.90500000      12.71500000  T       0.00000320       0.00000300       0.01424855      -3.35900426
Ti       5.85750000       5.85750000      14.66750000  T       0.00000542       0.00000497       0.04359505      -8.50933838
O        5.85750000       5.85750000      12.71500000  T      -0.00000315      -0.00000159      -0.03153717      -9.40879822
O        5.85750000       3.90500000      14.66750000  T       0.00000007      -0.00000292      -0.00580016      -9.40881348
O        3.90500000       5.85750000      14.66750000  T      -0.00000261      -0.00000057      -0.00580078      -9.40881348
Sr       3.90500000       3.90500000      16.62000000  T       0.00000014       0.00000052       0.03885030      -3.35843849
Ti       5.85750000       5.85750000      18.57250000  T       0.00000160       0.00000358      -0.31964493      -8.50897980
O        5.85750000       5.85750000      16.62000000  T      -0.00000218      -0.00000115       0.08584809      -9.41228485
O        5.85750000       3.90500000      18.57250000  T      -0.00000162       0.00000153      -0.01113104      -9.42574978
O        3.90500000       5.85750000      18.57250000  T       0.00000146      -0.00000198      -0.01112921      -9.42574787
Sr       3.90500000       3.90500000      20.52500000  T       0.00000077       0.00000139       0.59249991      -3.36762238