     1408
Lattice="     28.01      0.00      0.00    -16.54     25.80      0.00      0.00      0.00     23.42" pbc="T T T" config_type=md Properties=species:S:1:pos:R:3:charge:R:1:forces:R:3:id:I:1
 Si  3.466736276772E+00  1.331070000000E+00  3.743595300000E+00  0.000000000000E+00  1.316451738926E+00  1.183586810970E+01  3.041472031550E+00 -1.264965345500E-01 -9.891305094439E-01 -5.695174007605E+00        0
 Si  2.878236276772E+00  3.654360000000E+00  1.719403800000E+00  0.000000000000E+00 -2.683180861042E-01  4.972480175296E-01  1.893081671977E+01 -2.340890304094E-01 -9.062944569480E-02 -2.143472639470E-01        4
 Si  1.021766276772E+00  5.146610000000E+00  3.751321800000E+00  0.000000000000E+00 -1.697535911842E+00 -1.015203995564E+00  3.693508378067E+00  4.959857790889E-01  1.556065054137E+00  4.665206479675E-01        8
 Si -6.486372322785E-02  1.355230000000E+00  8.059072800000E+00  0.000000000000E+00 -6.817234027404E+01  1.136479159789E+01 -5.909632304005E-01  1.152397462821E+00 -4.879196719269E+01 -4.379225890053E+00       12
 Si -6.814837232278E-01  3.689420000000E+00  1.011953340000E+01  0.000000000000E+00  3.793251143967E-01  1.133367373811E+00  3.690768272667E+00  3.989795029992E-01 -5.703039202329E+00  8.582016152463E-02       16
 Si -2.517663723228E+00  5.147210000000E+00  8.102411900000E+00  0.000000000000E+00 -5.654667111417E+01 -6.093972178939E-01 -1.045043802435E-02 -1.381223124092E-01 -5.226203348052E+01  5.840029839430E-01       20
 Si  3.442336276772E+00  1.360820000000E+00  1.978442540000E+01  0.000000000000E+00  3.583624148149E-01  1.085309326909E+01 -5.418872621734E+00  2.320218389529E+00  1.822386842078E-01 -4.481528089487E+00       24
 Si  2.838656276772E+00  3.695490000000E+00  2.185092580000E+01  0.000000000000E+00 -7.421365574291E-01  7.815819725121E-01 -4.830645282218E+01  7.720041650951E-01 -1.172698583520E+00 -3.522856123126E-01       28
 Si  9.931062767722E-01  5.154100000000E+00  1.983415780000E+01  0.000000000000E+00 -1.717185796731E+00 -9.363600393229E-01 -6.014243116872E+00 -1.161327243653E+00 -1.776116219207E+00  4.879221859247E-01       32
 Si -2.480372322785E-02  1.336490000000E+00  1.546225160000E+01  0.000000000000E+00 -7.178468668459E+01  1.034814300682E+01  2.183242615465E+00  1.455194200243E+00  4.898527282503E+01 -5.832849039921E+00       36
 Si -6.393937232278E-01  3.653060000000E+00  1.341949630000E+01  0.000000000000E+00  7.784485013878E-01  5.417563887616E-01  2.059218722498E+00 -1.148188659980E-01  6.366991327051E+00 -1.922237453807E-01       40
 Si -2.489323723228E+00  5.141710000000E+00  1.546180720000E+01  0.000000000000E+00 -5.868929864380E+01 -7.535473839943E-01  2.545840629039E+00 -5.481178836946E-01  5.263133347558E+01  5.382516386135E-01       44
 O   3.047996276772E+00  2.135230000000E+00  2.305850200000E+00  0.000000000000E+00 -1.147812536489E+00 -3.748036232747E+00 -6.743512901444E+00  2.932295207169E+00  4.172472596589E-02  1.721308513137E+00       48
 O   4.304006276772E+00  3.474996889668E-16  3.103164400000E+00  0.000000000000E+00  4.238745774298E+00  6.104614783814E+00 -2.489989061564E+00 -8.053125696198E-02  8.511433959695E+00 -6.391016983704E+00       52
 O   4.428966276772E+00  2.286070000000E+00  4.689722900000E+00  0.000000000000E+00  6.059454809701E-01 -1.540760350961E+00 -2.130124986921E+00 -1.402110660699E+00  7.392208320595E-01 -2.307395089795E+00       56
 O   2.167966276772E+00  8.211300000000E-01  4.600085400000E+00  0.000000000000E+00  9.451415521569E+00  4.931815316440E+00 -1.885304599427E+00  4.573681639523E-01  1.541672058658E+00  5.462529583648E+00       60
 O   2.686256276772E+00  3.513330000000E+00  6.854870000000E-02  0.000000000000E+00 -1.357166082750E-01 -1.047518851940E+00 -3.842671263327E+00  1.376310489976E-01  7.260078205410E-01  8.071033050424E-01       64
 O  -2.787583723228E+00  4.587430000000E+00  2.093952200000E+00  0.000000000000E+00 -1.684851078040E+00 -2.447590136646E+00 -6.695228639979E+00 -1.666191231984E+00 -3.242732174476E+00  1.888284749800E+00       69
 O   1.531296276772E+00  4.359820000000E+00  2.327231900000E+00  0.000000000000E+00 -1.121590943120E-01 -1.611894293490E-01 -6.874048735237E+00 -1.284961412383E+00 -3.119159092883E-01  1.014917929565E+00       72
 O   1.157627677215E-02  4.182690000000E+00  4.627082700000E+00  0.000000000000E+00  1.103607982526E+01  2.479690380945E+00 -2.703407710240E+00  1.567270946023E+00 -3.072485871072E+00  1.147390310362E+00       76
 O   2.298536276772E+00  5.618210000000E+00  4.670684400000E+00  0.000000000000E+00 -5.555178968589E-02 -5.369443504932E-01 -2.140337920016E+00 -6.388375697200E-01 -7.583363380355E-01 -1.436668510492E+00       82
 O  -5.308037232278E-01  2.183630000000E+00  9.484495900000E+00  0.000000000000E+00  3.227009683607E+00 -3.732323560926E+00 -2.619203741161E+00  2.955978280492E-01  2.001390609721E+01  1.813161097493E+00       84
 O   7.787162767722E-01  3.891000000000E-02  8.704553700000E+00  0.000000000000E+00  2.219606293036E+01  6.870757456710E+00 -2.991775825404E+00  4.022385791429E-01  1.396085416094E+01 -6.025834055624E+00       88
 O   8.928262767722E-01  2.324850000000E+00  7.134225900000E+00  0.000000000000E+00  2.121014913436E+01 -1.626994636298E+00  1.216284761616E+00 -2.215254533744E+00  5.026204854659E+00 -2.165329752709E+00       92
 O   5.657266276772E+00  8.277000000000E-01  7.239478000000E+00  0.000000000000E+00 -1.461328783353E+00  4.549242837848E+00  1.517144576797E+00  4.964791682134E-01 -3.418538648343E+00  4.825157163641E+00       96
 O  -8.067337232278E-01  3.511190000000E+00  1.177610510000E+01  0.000000000000E+00 -1.070830938124E+00 -1.025703021510E+00 -4.057561259281E+00  1.124180208518E+00 -1.224748494634E-01  5.919382900951E-01      100
 O   6.728462767722E-01  4.578530000000E+00  9.699908700000E+00  0.000000000000E+00 -2.915970875264E-01  1.650119616519E+00  6.736371708737E+00  5.004241646862E+00  2.079682366302E+00  1.587839814096E-02      104
 O  -2.046823723228E+00  4.401480000000E+00  9.565073700000E+00  0.000000000000E+00  1.043576123582E+01 -1.865459347067E-01 -3.242068072257E+00  8.720349760677E-01  2.077747090267E+01  1.112097380451E+00      108
 O   3.503526276772E+00  4.181820000000E+00  7.214430000000E+00  0.000000000000E+00  8.501251403932E-01  2.134678004800E+00  1.305934466975E+00  1.644376685101E+00  6.224937707938E-01  7.150538673609E-01      112
 O  -1.229523723228E+00  5.618060000000E+00  7.195623800000E+00  0.000000000000E+00  2.054504927692E+01 -6.539069868835E-01  1.501105667805E+00 -7.397248603772E-01  6.268608200010E+00 -1.657759217032E+00      118
 O   2.995536276772E+00  2.188180000000E+00  2.120139480000E+01  0.000000000000E+00 -1.204726520549E+00 -3.135114377526E+00  4.546219993460E+00  6.732184220247E+00  7.759226690467E-01  1.654066920904E+00      120
 O   4.299106276772E+00  4.767000000000E-02  2.041093850000E+01  0.000000000000E+00  4.556312159910E+00  8.839366750104E+00 -5.081099009275E+00  6.907849708728E-01 -8.064051035395E+00 -7.545266700040E+00      124
 O   4.399686276772E+00  2.317780000000E+00  1.884018650000E+01  0.000000000000E+00  9.391173669026E-01 -1.485292461462E+00  3.544570814728E+00 -5.029451770429E+00 -6.774385117615E-01 -2.264116599738E+00      128
 O   2.139236276772E+00  8.260600000000E-01  1.894713540000E+01  0.000000000000E+00  1.013755501075E+01  5.249347854162E+00  4.525383014805E+00  1.744409144308E+00 -1.020017682178E+00  5.222768416549E+00      132
 O  -2.831543723228E+00  4.598390000000E+00  2.140718230000E+01  0.000000000000E+00  5.777179328073E+00  2.019583739343E+00  2.862067019932E+01  1.619624957919E+01  5.288894513633E+00  1.617498026840E-01      137
 O   1.473126276772E+00  4.399000000000E+00  2.127337750000E+01  0.000000000000E+00  5.226725608791E-02 -4.572529266461E-01  4.258612535555E+00  9.754790500527E-01  7.005407194170E-01  1.442334413911E+00      140
 O   6.786276772155E-03  4.182460000000E+00  1.894024720000E+01  0.000000000000E+00  1.111924141062E+01  2.374411476957E+00  2.829869843973E+00  4.884910608642E+00  3.114544551837E+00  7.497959598347E-01      144
 O   2.276586276772E+00  5.620520000000E+00  1.891209850000E+01  0.000000000000E+00 -1.053117796121E-01 -6.934215122726E-01  4.191317322003E+00 -1.990273723343E+00  7.880315996578E-01 -1.777386792690E+00      150
 O  -4.699537232278E-01  2.140980000000E+00  1.403324300000E+01  0.000000000000E+00  6.934003060531E+00 -3.209911795421E+00  1.931943820565E+00  2.214181932824E+00 -1.927223808040E+01  1.743700898563E+00      152
 O   8.473562767722E-01  2.917000000000E-02  1.481845740000E+01  0.000000000000E+00  2.434979213758E+01  8.301021158259E+00  4.691103892786E+00 -7.658405069037E-02 -1.353481057093E+01 -7.651353871293E+00      156
 O   9.333262767722E-01  2.298830000000E+00  1.640023860000E+01  0.000000000000E+00  2.239961394034E+01 -1.101159460606E+00 -3.235413212832E+00 -3.774870673750E+00 -4.650199818844E+00 -2.129435089840E+00      160
 O   5.666816276772E+00  8.178700000000E-01  1.631764080000E+01  0.000000000000E+00 -1.328278098542E+00  5.813488799621E+00 -5.376641794258E+00  1.228144331804E+00  2.940600683496E+00  5.784195148086E+00      164
 O   6.928862767722E-01  4.596510000000E+00  1.379748880000E+01  0.000000000000E+00 -2.995397604963E-01 -2.615954073536E+00 -1.131138656399E+01 -5.808370772057E+00 -2.207282141032E+00  2.118292068275E+00      168
 O  -1.993133723228E+00  4.362220000000E+00  1.402766780000E+01  0.000000000000E+00  9.366673468427E+00 -5.316687938070E-01  2.525478061705E+00  4.195034636033E-01 -2.008592952611E+01  1.509626443091E+00      172
 O   3.522646276772E+00  4.165830000000E+00  1.633344730000E+01  0.000000000000E+00  9.022288218199E-01  2.561208868572E+00 -3.334111420793E+00  4.753546127107E+00 -6.432393678720E-01  6.461694373676E-01      176
 O  -1.194763723228E+00  5.602900000000E+00  1.635825290000E+01  0.000000000000E+00  1.968034407081E+01 -3.038508327451E-01 -2.518427947311E+00 -7.790335509472E-01 -6.303133715117E+00 -1.591932495127E+00      182
 O  -1.465437232278E-01  1.754740000000E+00  2.266490500000E+00  0.000000000000E+00  9.331669735891E+00  2.099804199591E+00 -4.153561761067E+00  8.823758388641E-01 -3.269372325031E+00  1.005258959337E-01      184
 O   1.932206276772E+00  2.957400000000E-01  0.000000000000E+00  0.000000000000E+00 -1.443953406399E+00 -2.580296392430E+00 -4.681796962378E+00 -8.263759036983E+00  6.055743392000E+00  9.039297618911E-01      188
 O   5.114316276772E+00  4.367100000000E-01  8.854670000000E-02  0.000000000000E+00 -1.017697378617E+01  2.443853173539E+00 -1.834193648497E+01  2.088208896337E+00  1.183898650079E+00  3.792181673579E+00      192
 O  -8.052837232278E-01  3.811780000000E+00  2.350573000000E-01  0.000000000000E+00 -2.315796116461E+00 -1.331137040932E+00 -1.684894961907E+01 -1.526726537496E+00  5.584601938007E+00  2.115365773045E+00      196
 O   3.433166276772E+00  1.564610000000E+00  9.607988600000E+00  0.000000000000E+00  1.544199532422E+00  2.862286040791E+00  8.288845711631E+00 -7.265521098084E+00  2.976520102164E+00  1.179377751108E-01      200
 O   5.407216276772E+00  2.964600000000E-01  1.173093790000E+01  0.000000000000E+00 -2.005844062463E+00 -1.883727381762E+00  1.371293168369E+01  7.110078767684E+00  1.315493377571E+01  1.215635152842E+00      204
 O   1.607386276772E+00  4.378600000000E-01  1.179008350000E+01  0.000000000000E+00  2.452289442168E-02  2.840308320967E+00  3.199291644816E-01 -6.653993062249E+00 -2.157122670559E-01  3.680250107596E+00      208
 O   2.689336276772E+00  3.834440000000E+00  1.192564570000E+01  0.000000000000E+00  8.523554243017E-01 -1.270665855023E+00 -1.550176262690E+01 -9.532403453566E-01 -3.429986436291E+00  2.203450247511E+00      212
 O  -6.104372322784E-02  1.570250000000E+00  2.132995770000E+01  0.000000000000E+00  6.062745097804E+00  2.585009113389E+00  2.991472204399E+01 -2.099023815416E+01  3.541068704709E+00  1.094136717902E-01      216
 O   3.433936276772E+00  1.708910000000E+00  1.393186930000E+01  0.000000000000E+00 -2.994053666455E+00  2.387056253190E+00 -1.212987386882E+01  7.949472973693E+00 -2.835035218671E+00  3.068923872225E-01      220
 H   1.447246276772E+00  1.334100000000E-01  8.739126000000E-01  0.000000000000E+00  3.285769552422E+00 -2.059093877974E+00  6.193334684626E+00 -2.132430007081E+00 -5.207740265353E+00 -3.951999082361E+00      224
 H   2.488866276772E+00  1.106610000000E+00  1.913142000000E-01  0.000000000000E+00 -2.349095279461E+00  5.330844649100E+00  9.026947271647E-01  5.025115262749E+00  6.165675649400E-02  2.923329069300E+00      228
 H   4.454776276772E+00  3.630000000000E-01  2.274401830000E+01  0.000000000000E+00  5.638880313154E+00  2.482058911666E+00  6.509836701575E+00 -5.436197813410E-01  7.655095981254E+00 -3.307462398869E+00      232
 H   4.652976276772E+00  8.238000000000E-02  9.207261000000E-01  0.000000000000E+00  3.574568307853E+00 -1.990021678276E-02  7.746529192937E+00 -2.528497796785E+00 -8.655054820675E+00 -2.094603832915E+00      236
 H  -1.058743723228E+00  3.236580000000E+00  2.286117830000E+01  0.000000000000E+00  8.517962879982E-01  2.519782685025E+00  7.131272943995E+00  6.356640799174E+00 -3.427107919013E+00  1.365922708838E+00      240
 H  -4.132372322785E-02  4.361370000000E+00  2.330295230000E+01  0.000000000000E+00  3.878969156494E+00 -3.112792440618E+00  1.589731504116E+00 -6.679987605863E+00 -1.108253757386E+00 -3.714291650004E+00      244
 H  -8.345637232278E-01  1.378090000000E+00  1.634816300000E+00  0.000000000000E+00 -2.355429637560E+00  1.296888114529E+00  3.917932511531E+00  1.646915086692E-01 -4.234401562060E+00  2.573036257408E-01      248
 H   4.772627677215E-02  2.664690000000E+00  1.880205900000E+00  0.000000000000E+00  1.350089880768E+00 -7.365210719599E-01  3.247919256642E+00 -1.439014188536E+00 -5.212810252989E-01 -2.338805501646E-01      252
 H   1.153986276772E+00  7.172000000000E-02  1.261959650000E+01  0.000000000000E+00  7.526962686885E-01 -3.763259437681E-01 -1.426630257552E+01  6.340241793057E+00  7.421496713481E-01 -2.040974583119E+00      256
 H   9.514362767722E-01  3.574300000000E-01  1.102438230000E+01  0.000000000000E+00  1.128429482386E+00  2.436867278339E+00  1.252887806716E+01  2.780742072939E-01 -6.340083359367E-01 -3.255906448879E+00      260
 H   5.987696276772E+00  1.093860000000E+00  1.190501140000E+01  0.000000000000E+00 -6.760085953862E+00  5.135816885095E+00 -2.104120749196E+00 -9.888070903583E+00 -8.393947182749E-01  2.904015727855E+00      264
 H   4.922126276772E+00  1.669800000000E-01  1.260805220000E+01  0.000000000000E+00  5.830866349863E+00 -2.335952177120E+00 -1.400033944703E+01  2.284058826346E+00 -1.038316327670E+01 -3.989968599677E+00      268
 H   2.436326276772E+00  3.262500000000E+00  1.113419960000E+01  0.000000000000E+00  1.039047139047E+00  2.439777656775E+00  1.118478422603E+01  8.625411654589E+00  2.232762491153E+00  1.364336120613E+00      272
 H   3.459526276772E+00  4.380900000000E+00  1.158326580000E+01  0.000000000000E+00 -3.055796751986E+00 -3.279368050929E+00  4.369428374050E+00 -7.907317948719E+00  1.332085575987E+00 -3.938943727209E+00      276
 H   2.706956276772E+00  1.357590000000E+00  1.332991940000E+01  0.000000000000E+00  3.116311901537E+00  1.132716932752E+00  1.028730441412E+01  5.910271042303E+00  3.151001742192E+00  1.564851491537E-01      280
 H   2.907656276772E+00  9.414100000000E-01  1.019879820000E+01  0.000000000000E+00  3.655191478310E+00  6.092296971565E-01 -7.547884703516E+00  7.500166643005E+00 -3.436219001829E+00 -1.673801021754E+00      284
 H   3.593576276772E+00  2.638220000000E+00  1.357673310000E+01  0.000000000000E+00 -1.335912147255E+00 -6.854646769025E-01  4.699307989867E+00 -1.388486413522E+01  2.060400917218E+00 -1.485245337563E-01      288
 H   4.378356276772E+00  1.478530000000E+00  9.938753500000E+00  0.000000000000E+00 -6.363488943321E+00  1.982330651491E+00 -3.221855212377E+00  1.343447826407E-01 -1.638891594506E+00  1.043116918456E+00      292
 H   8.801862767722E-01  1.479670000000E+00  2.167450910000E+01  0.000000000000E+00  2.452059951350E+00  2.086225585898E+00 -1.182279156586E+01  3.136032557088E+00  1.152519709789E+00  9.445007067491E-01      296
 H  -5.965737232278E-01  9.557400000000E-01  2.192413060000E+01  0.000000000000E+00  7.478343756010E-01  8.253655087923E-01 -2.121199508184E+01  2.035241606747E+01  3.579534033010E+00 -1.534382433283E+00      300
 H  -1.998943723228E+00  4.413390000000E+00  1.461348800000E+00  0.000000000000E+00  1.625561379643E+01  1.450466178729E-01  7.934804324973E+00  2.959384964532E+00 -9.198079751853E+00 -3.873388952232E+00      304
 H   1.482316276772E+00  4.428140000000E+00  1.316561260000E+01  0.000000000000E+00 -1.428960463738E+00  1.588156721370E-01  8.956728302499E+00  1.199777941860E+00  9.353568124203E-01 -3.863917718854E+00      308
 H  -2.528713723228E+00  5.330590000000E+00  2.204695670000E+01  0.000000000000E+00  8.242786441859E+00 -4.931625896588E+00 -2.184473780531E+01 -2.696737931988E+01  9.844968811535E+00 -2.345816335702E+00      312
 H   9.772162767722E-01  5.311240000000E+00  1.032969420000E+01  0.000000000000E+00 -7.182483671288E-01 -4.434556000938E+00 -6.593004479124E+00 -8.398220397490E+00 -4.216029669360E-01 -2.174845720156E+00      316
 Ca -1.631437232278E-01  1.651050000000E+00  4.807529300000E+00  0.000000000000E+00 -4.274032040645E+01 -2.246939700862E+01  1.035395500610E+00 -7.416017960730E-02  1.900466283725E+01 -2.791166142405E+00      320
 Ca  1.119576276772E+00  4.825610000000E+00  6.968808100000E+00  0.000000000000E+00 -2.817156882714E+00 -2.974790743033E-01 -1.494983653105E+00  1.006126290822E-01 -6.841743197975E-01  6.052732770056E-02      324
 Ca  3.319396276772E+00  1.661620000000E+00  6.998451600000E+00  0.000000000000E+00 -2.015733468800E-01 -2.277647613563E+01 -8.625100138602E-01 -9.265558264468E-02 -1.571450054149E+00 -3.612193811044E+00      328
 Ca -2.366163723228E+00  4.813870000000E+00  4.881249200000E+00  0.000000000000E+00 -4.370308235314E+01 -6.197682515748E-02  1.977659272026E+00  4.335100870561E-01  2.269945421102E+01  2.180641577896E-01      332
 Ca -1.726137232278E-01  1.654190000000E+00  1.872350120000E+01  0.000000000000E+00 -4.340163165796E+01 -2.315411366735E+01 -2.379284789791E+00 -4.356644528611E-01 -1.983650140629E+01 -3.767281887317E+00      336
 Ca  1.139426276772E+00  4.810530000000E+00  1.659622910000E+01  0.000000000000E+00 -2.898912223238E+00 -1.923935988901E-01  4.244378934419E+00  1.027023099380E+00  6.273926597881E-01  4.104936903820E-02      340
 Ca  3.343826276772E+00  1.655870000000E+00  1.651443930000E+01  0.000000000000E+00 -7.705097614769E-01 -2.341941459379E+01  1.892486891239E+00 -1.857468306497E-01  1.364903761592E+00 -3.114833299767E+00      344
 Ca -2.374903723228E+00  4.811930000000E+00  1.869685740000E+01  0.000000000000E+00 -4.388292344152E+01 -1.729499156922E-01 -3.408886605527E+00  7.038879393811E-01 -2.334154552619E+01  2.565727861915E-01      348
 Si  1.047718627677E+01  1.333730000000E+00  3.745393100000E+00  0.000000000000E+00  3.540760997608E+00  1.131152097676E+01  3.263460096610E+00 -2.658227616158E-01 -5.258868621920E-01 -5.875390456500E+00        1
 Si  9.879306276772E+00  3.656140000000E+00  1.721646000000E+00  0.000000000000E+00 -3.082383020132E-01  3.286072079277E-01  1.910038903622E+01 -2.983832302311E-01 -2.454362319801E+00 -3.743457656657E-01        5
 Si  8.023016276772E+00  5.149810000000E+00  3.748301900000E+00  0.000000000000E+00  6.374563642272E-01 -9.533149708476E-01  3.855655424794E+00  5.392177917945E-01  2.484488103210E+00  3.101404601954E-01        9
 Si  6.962216276772E+00  1.365100000000E+00  8.065950900000E+00  0.000000000000E+00  2.837894970054E+00  1.082676067810E+01 -7.676725249131E-01  5.704016993925E-01  2.372945553280E+00 -4.438873524958E+00       13
 Si  6.332386276772E+00  3.702290000000E+00  1.012363400000E+01  0.000000000000E+00  2.522936937865E-01  1.068532697098E+00  3.841367663757E+00  3.473381382420E-01  2.121771088477E+00  7.273960682889E-02       17
 Si  4.486296276772E+00  5.155330000000E+00  8.105593400000E+00  0.000000000000E+00  5.447981872850E-01 -7.717472362005E-01 -3.396465071314E-01 -3.893445647659E-01 -3.137928624624E-02  4.591795628155E-01       21
 Si  1.045662627677E+01  1.350880000000E+00  1.978396080000E+01  0.000000000000E+00  2.187854782596E+00  1.112103011931E+01 -5.413788134575E+00  2.922306015749E+00 -1.259635576305E+00 -4.459163288149E+00       25
 Si  9.831666276772E+00  3.698620000000E+00  2.184408810000E+01  0.000000000000E+00 -5.048761555307E-01  8.302302981974E-01 -4.975889118336E+01  1.196562987508E+00 -2.674458324824E+00 -2.439512847945E-01       29
 Si  7.992026276772E+00  5.151660000000E+00  1.982863310000E+01  0.000000000000E+00  8.424012232868E-01 -1.184475856900E+00 -5.706941805611E+00 -2.083166589374E+00 -3.203416011493E+00  3.822614439228E-01       33
 Si  6.964876276772E+00  1.341820000000E+00  1.545939330000E+01  0.000000000000E+00  3.572438099838E+00  1.038371954312E+01  2.860073803490E+00  1.962653655802E+00 -1.728985277630E+00 -5.925624048841E+00       37
 Si  6.366166276772E+00  3.655890000000E+00  1.341780960000E+01  0.000000000000E+00  2.686792349543E-01  5.033924607893E-01  1.876906027290E+00 -3.996347448265E-01  1.070990617388E+00 -1.010946380683E-01       41
 Si  4.511126276772E+00  5.141560000000E+00  1.545321210000E+01  0.000000000000E+00  5.490572657286E-01 -7.759333069485E-01  3.215047828889E+00 -5.952618545692E-01  8.063075606624E-01  5.286291283061E-01       45
 O   1.004818627677E+01  2.133380000000E+00  2.305476500000E+00  0.000000000000E+00 -4.776947853777E-02 -3.631684542098E+00 -6.677742092870E+00  3.035223416137E+00  2.816011244259E+00  1.731749014963E+00       49
 O   1.133591627677E+01  1.511000000000E-02  3.113052300000E+00  0.000000000000E+00  3.982235914328E+00  7.998046263728E+00 -2.514426818340E+00  1.168058464271E-01  1.115471572775E+01 -6.127335663527E+00       53
 O   1.143191627677E+01  2.288080000000E+00  4.699843100000E+00  0.000000000000E+00 -2.166999308791E+00 -1.529391069267E+00 -2.305861514903E+00 -1.235040120663E+00 -1.411836850871E+00 -2.257049461645E+00       57
 O   9.179476276772E+00  8.114300000000E-01  4.602570000000E+00  0.000000000000E+00 -1.196235965356E+00  5.270280655328E+00 -2.159150776687E+00  6.664590578394E-01  2.367964242483E+00  5.616198109955E+00       61
 O   9.716826276772E+00  3.517420000000E+00  6.297350000000E-02  0.000000000000E+00  1.263950422342E+00 -9.648977928339E-01 -4.087201075224E+00  2.541777284325E-01  3.422889789504E+00  5.047533706470E-01       65
 O   4.213386276772E+00  4.595350000000E+00  2.085458100000E+00  0.000000000000E+00  2.146282192529E+00 -2.684724680284E+00 -6.508444610979E+00 -1.639203453462E+00 -3.322250187779E+00  2.181732105598E+00       68
 O   8.518896276772E+00  4.353840000000E+00  2.323878700000E+00  0.000000000000E+00  3.193235133114E+00 -4.488945082636E-01 -7.074588599184E+00 -1.346993082904E+00  1.794726274160E+00  1.833285279007E+00       73
 O   7.026366276772E+00  4.188630000000E+00  4.644202200000E+00  0.000000000000E+00  1.426147875701E+00  2.383918415690E+00 -2.826484175477E+00  1.386362613159E+00 -2.133585104719E+00  9.996531303766E-01       77
 O   9.305446276772E+00  5.632400000000E+00  4.651817600000E+00  0.000000000000E+00 -2.340639026804E+00 -6.183282260219E-01 -2.067564633354E+00 -7.126013928922E-01 -2.210957780955E+00 -1.380022790767E+00       83
 O   6.500546276772E+00  2.197340000000E+00  9.488142000000E+00  0.000000000000E+00 -3.434897377760E-01 -3.503394656089E+00 -2.493618774539E+00  8.666991793211E-01 -1.625553080867E+00  1.750759524053E+00       85
 O   7.832696276772E+00  6.260000000000E-02  8.703382100000E+00  0.000000000000E+00  3.356716486536E+00  8.647141080570E+00 -2.927942447897E+00  7.519703287239E-01 -9.936345468039E+00 -7.167202319282E+00       89
 O   7.922736276772E+00  2.319300000000E+00  7.130478800000E+00  0.000000000000E+00 -4.394377752052E-01 -1.388577698490E+00  1.052165259214E+00 -1.530990016363E+00 -6.997951082129E-01 -2.201197486239E+00       93
 O   1.264515627677E+01  8.223900000000E-01  7.214803700000E+00  0.000000000000E+00 -3.779680436998E-01  4.639844566041E+00  1.964395934280E+00  5.275309504638E-01 -1.343509822563E+00  4.841008679599E+00       97
 O   6.193096276772E+00  3.516880000000E+00  1.177779180000E+01  0.000000000000E+00  1.017733961597E+00 -8.709678611979E-01 -4.672688778544E+00  1.606721380401E+00 -2.379989881796E+00  6.626209110692E-01      101
 O   7.686746276772E+00  4.598560000000E+00  9.720159200000E+00  0.000000000000E+00 -3.797780651966E-01  1.460185181997E+00  6.110123000240E+00  4.559875053259E+00  4.824474145519E+00 -4.129106115528E-01      105
 O   4.960296276772E+00  4.408170000000E+00  9.568447100000E+00  0.000000000000E+00  1.045736965214E+00 -1.061184696052E-01 -3.412385021121E+00  1.029694304328E+00 -1.814949792562E+00  1.173404196677E+00      109
 O   1.050425627677E+01  4.177680000000E+00  7.211713100000E+00  0.000000000000E+00  1.479558958223E+00  1.990845918522E+00  1.091028580527E+00  1.547362103247E+00  1.572557587104E+00  7.244787816501E-01      113
 O   5.775866276772E+00  5.620340000000E+00  7.200350600000E+00  0.000000000000E+00 -1.703138764702E+00 -5.562439828892E-01  1.028369946498E+00 -6.155720518938E-01  8.289911792551E-01 -1.604661172247E+00      119
 O   9.990116276772E+00  2.194540000000E+00  2.118846680000E+01  0.000000000000E+00 -1.334155016726E-01 -3.305436005808E+00  3.248891371562E+00  5.334231440787E+00 -7.793692287788E-01  1.655190106917E+00      121
 O   1.128999627677E+01  3.635000000000E-02  2.043639050000E+01  0.000000000000E+00  4.000777395774E+00  8.050524583386E+00 -5.594370081010E+00  4.834389723152E-02 -1.074119897618E+01 -6.585380119276E+00      125
 O   1.143247627677E+01  2.287430000000E+00  1.883972190000E+01  0.000000000000E+00 -1.221746469399E+00 -1.092553197819E+00  3.745505510424E+00 -3.403074267847E+00  1.207944556593E+00 -2.567497604858E+00      129
 O   9.163166276772E+00  8.237000000000E-01  1.892233990000E+01  0.000000000000E+00 -8.151350034485E-01  4.878795539797E+00  5.179013928685E+00  1.548316751819E+00 -1.587852366973E+00  4.856113199768E+00      133
 O   4.188306276772E+00  4.591260000000E+00  2.143921950000E+01  0.000000000000E+00  4.825740536489E-01  2.128662033248E+00  2.748581423391E+01  1.689180872007E+01  3.340092064043E+00  3.010659598039E-01      136
 O   8.450296276772E+00  4.392100000000E+00  2.128206350000E+01  0.000000000000E+00  2.737410770080E+00 -3.162671552692E-01  1.973598550911E+00  1.690329224335E+00 -1.609241768334E+00  1.610648787711E+00      141
 O   6.998846276772E+00  4.193130000000E+00  1.891912810000E+01  0.000000000000E+00  1.610968727869E+00  2.506978001953E+00  5.214541037390E+00  5.764747451670E+00  2.368597673684E+00  1.151744629930E+00      145
 O   9.288506276772E+00  5.606370000000E+00  1.892106730000E+01  0.000000000000E+00 -3.261386074814E+00 -6.082221725081E-01  3.316413192569E+00 -1.708645929632E+00  2.142904654190E+00 -1.938590627554E+00      151
 O   6.557966276772E+00  2.138500000000E+00  1.401263900000E+01  0.000000000000E+00 -1.045650540146E+00 -3.205270512508E+00  3.645260245421E+00  2.563638686703E+00  1.959146128135E+00  1.500407868529E+00      153
 O   7.833576276772E+00  3.276000000000E-02  1.482046730000E+01  0.000000000000E+00  4.253988882675E+00  8.844227227095E+00  4.487063597814E+00 -4.282359987436E-01  1.063675609744E+01 -6.653011066519E+00      157
 O   7.911906276772E+00  2.297330000000E+00  1.641606530000E+01  0.000000000000E+00 -5.045113328790E-01 -1.152178471700E+00 -3.853564884654E+00 -3.841938249630E+00  1.698741792199E-01 -1.944065708407E+00      161
 O   1.269983627677E+01  7.945300000000E-01  1.632584200000E+01  0.000000000000E+00 -1.183058350523E+00  6.018277329392E+00 -4.311723663070E+00  1.819408480030E+00  1.868323828990E+00  5.441040661173E+00      165
 O   7.696606276772E+00  4.600470000000E+00  1.380516480000E+01  0.000000000000E+00  3.474547889915E+00 -2.620832909840E+00 -1.141034581300E+01 -5.776037066101E+00 -6.347324365405E+00  1.969013266968E+00      169
 O   5.004406276772E+00  4.353380000000E+00  1.402382980000E+01  0.000000000000E+00  2.013026408095E+00 -5.711529124877E-01  2.885367127909E+00  3.519564717237E-01  1.087525630944E+00  1.980543727230E+00      173
 O   1.050011627677E+01  4.181830000000E+00  1.633164950000E+01  0.000000000000E+00  2.948050609961E+00  2.471666924798E+00 -3.494691108763E+00  4.741255850066E+00 -1.985235366941E+00  1.281597065483E+00      177
 O   5.786926276772E+00  5.632450000000E+00  1.635983860000E+01  0.000000000000E+00 -1.191512526273E+00 -4.967800467226E-01 -3.459306161429E+00 -1.334182235615E+00 -1.095179243847E+00 -1.105524112460E+00      183
 O   6.885556276772E+00  1.745150000000E+00  2.243866500000E+00  0.000000000000E+00 -5.421431292019E+00  2.135847419995E+00 -4.025996978118E+00  7.787816712828E-01 -5.530771269736E+00  1.195668741198E-01      185
 O   8.903166276772E+00  2.977100000000E-01  1.903850000000E-02  0.000000000000E+00 -2.057235564331E+00 -2.634891048868E+00 -4.878910637705E+00 -7.939991809735E+00  1.796414112498E+01  8.530452482068E-01      189
 O   1.211282627677E+01  4.381900000000E-01  7.448750000000E-02  0.000000000000E+00 -1.754376332873E+01  2.620599159723E+00 -1.795517032929E+01  2.187939706218E+00  2.193611990484E+00  3.702480065689E+00      193
 O   6.220456276772E+00  3.827400000000E+00  2.175237000000E-01  0.000000000000E+00  3.386290851010E+00 -1.318620104119E+00 -1.567006486906E+01 -8.420051891986E-01 -7.838322944921E+00  1.891965145251E+00      197
 O   1.043058627677E+01  1.583480000000E+00  9.635036400000E+00  0.000000000000E+00  3.669660971079E+00  2.549071177073E+00  7.725595645046E+00 -7.370291939752E+00  7.584212055946E+00  1.518055943621E-01      201